 Gaussian 09, Revision A.02,
 Gaussian 09:  EM64L-G09RevA.02 11-Jun-2009

 ------------------------------------------------------
 #p M062X/6-311+G* opt=(ts,calcall) SCF=XQC nosymm freq
 ------------------------------------------------------

 -------
 Reactif
 -------
 Symbolic Z-matrix:
 Charge =  1 Multiplicity = 3

 SCF Done:  E(UM062X) =  -380.774992605     A.U. after   27 cycles
 SCF Done:  E(UM062X) =  -380.774982530     A.U. after   21 cycles
 Optimization completed.
    -- Stationary point found.
 ******    1 imaginary frequencies (negative Signs) ******
    1 imaginary frequencies ignored.
 Normal termination of Gaussian 09 at Mon Sep 19 12:37:33 2022.

 ----------------------------------------------------------------------
 #P Geom=AllCheck Guess=TCheck SCRF=Check GenChk UM062X/6-311+G(d) Freq
 ----------------------------------------------------------------------

 Reactif
 -------
 Redundant internal coordinates taken from checkpoint file:
 TS-after-scan.chk
 Charge =  1 Multiplicity = 3

                          Input orientation:
 ---------------------------------------------------------------------
 Center     Atomic      Atomic             Coordinates (Angstroms)
 Number     Number       Type             X           Y           Z
 ---------------------------------------------------------------------
      1          6           0       -2.724078   -0.181754    0.000188
      2          6           0       -1.870308   -1.088030    0.000120
      3          6           0       -1.461129    1.827082    0.000072
      4          6           0       -0.732281   -1.733436    0.000120
      5          6           0       -0.205775    2.099872    0.000033
      6          6           0        0.528508   -1.858682   -0.000015
      7          6           0        1.009625    1.673370    0.000096
      8          6           0        1.773967   -1.506151   -0.000070
      9          6           0        2.107341    0.997170   -0.000047
     10          6           0        2.186080   -0.282592   -0.000129
     11          1           0       -3.677140    0.310043    0.000221
 ---------------------------------------------------------------------

 SCF Done:  E(UM062X) =  -380.774982530     A.U. after    1 cycles

 Alpha  occ. eigenvalues --  -10.84695 -10.84443 -10.82141 -10.81965 -10.81889
 Alpha  occ. eigenvalues --  -10.81827 -10.81489 -10.80434 -10.78332 -10.76070
 Alpha  occ. eigenvalues --   -1.19931  -1.15632  -1.12720  -1.08255  -1.05227
 Alpha  occ. eigenvalues --   -0.97259  -0.93482  -0.88176  -0.83994  -0.80144
 Alpha  occ. eigenvalues --   -0.70630  -0.70219  -0.66024  -0.66021  -0.63547
 Alpha  occ. eigenvalues --   -0.61863  -0.59029  -0.54307  -0.51942  -0.49184
 Alpha  occ. eigenvalues --   -0.49034
 Alpha virt. eigenvalues --   -0.28676  -0.26391  -0.22002  -0.20169  -0.20122
 Alpha virt. eigenvalues --   -0.12573  -0.10506  -0.08975  -0.08708  -0.08242
 Alpha virt. eigenvalues --   -0.08218  -0.07518  -0.06659  -0.05561  -0.05187

  Beta  occ. eigenvalues --  -10.84598 -10.84459 -10.82204 -10.81635 -10.81503
  Beta  occ. eigenvalues --  -10.81249 -10.81058 -10.80369 -10.78483 -10.76064
  Beta  occ. eigenvalues --   -1.19155  -1.14655  -1.11487  -1.07260  -1.02778
  Beta  occ. eigenvalues --   -0.96051  -0.92412  -0.87260  -0.83225  -0.79145
  Beta  occ. eigenvalues --   -0.69081  -0.68610  -0.64049  -0.63649  -0.61517
  Beta  occ. eigenvalues --   -0.59068  -0.53507  -0.52273  -0.50534
  Beta virt. eigenvalues --   -0.34856  -0.33879  -0.25273  -0.23936  -0.20249
  Beta virt. eigenvalues --   -0.18630  -0.17995  -0.12649  -0.09721  -0.09055
  Beta virt. eigenvalues --   -0.08564  -0.08132  -0.07030  -0.06953  -0.06371

 Mulliken atomic charges:
              1
     1  C   -0.387065
     2  C    0.448861
     3  C    0.363143
     4  C    0.204708
     5  C   -0.017351
     6  C    0.120413
     7  C    0.124186
     8  C    0.285600
     9  C    0.344916
    10  C   -0.867219
    11  H    0.379810
 Sum of Mulliken atomic charges =   1.00000

 Dipole moment (field-independent basis, Debye):
    X=             -0.9190    Y=             -0.4699    Z=              0.0003  Tot=              1.0322
 Quadrupole moment (field-independent basis, Debye-Ang):
   XX=            -27.0224   YY=            -42.7612   ZZ=            -53.3502
   XY=             -0.6389   XZ=             -0.0015   YZ=              0.0003

  Exact polarizability: 177.624  -8.782 142.774  -0.002   0.001  45.021
 Approx polarizability: 344.310 -49.312 248.968  -0.014   0.003  56.282

 ******    1 imaginary frequencies (negative Signs) ******

                     1                      2                      3
                     A                      A                      A
 Frequencies --  -394.5146               128.3732               131.3398
 Red. masses --    11.5628                 6.4233                11.1822
 Frc consts  --     1.0603                 0.0624                 0.1137
 IR Inten    --    44.7385                 2.9229                 1.0847

                     4                      5                      6
                     A                      A                      A
 Frequencies --   163.5191               178.0761               277.1172
 Red. masses --    11.2610                 8.2324                 7.5576
 Frc consts  --     0.1774                 0.1538                 0.3420
 IR Inten    --     1.1570                 0.4692                 2.5343

                     7                      8                      9
                     A                      A                      A
 Frequencies --   303.6442               370.8599               382.4683
 Red. masses --    11.0107                11.5736                 8.8977
 Frc consts  --     0.5981                 0.9379                 0.7669
 IR Inten    --    21.1050                38.9607                 1.2512

                    10                     11                     12
                     A                      A                      A
 Frequencies --   422.9865               443.0825               475.1152
 Red. masses --    10.3252                11.9866                 9.2173
 Frc consts  --     1.0884                 1.3865                 1.2259
 IR Inten    --     3.6829                 3.6229                 0.3151

                    13                     14                     15
                     A                      A                      A
 Frequencies --   492.6166               529.6701               533.1732
 Red. masses --     8.3976                11.5417                11.2768
 Frc consts  --     1.2007                 1.9078                 1.8887
 IR Inten    --     0.8243                 4.8818                 6.4514

                    16                     17                     18
                     A                      A                      A
 Frequencies --   701.3775               732.5204               829.3229
 Red. masses --     1.3895                 1.1308                 9.6051
 Frc consts  --     0.4027                 0.3575                 3.8922
 IR Inten    --    26.4866                37.4804                 4.8038

                    19                     20                     21
                     A                      A                      A
 Frequencies --   975.2759              1255.7239              1544.2339
 Red. masses --    10.1164                10.8466                10.1079
 Frc consts  --     5.6693                10.0770                14.2016
 IR Inten    --     1.7402                 1.6787                14.6374

                    22                     23                     24
                     A                      A                      A
 Frequencies --  1691.1146              1785.6452              1893.7096
 Red. masses --    11.9103                11.8831                 9.3297
 Frc consts  --    20.0687                22.3239                19.7127
 IR Inten    --    20.2873                15.4088               361.2025

                    25                     26                     27
                     A                      A                      A
 Frequencies --  1980.6496              2046.1887              3374.6372
 Red. masses --    10.2456                10.5782                 1.1324
 Frc consts  --    23.6813                26.0949                 7.5984
 IR Inten    --   200.8989               444.6619               103.1496

 - Thermochemistry -
 -------------------
 Temperature   298.150 Kelvin.  Pressure   1.00000 Atm.
 Atom     1 has atomic number  6 and mass  12.00000

 Molecular mass:   121.00783 amu.
 Principal axes and moments of inertia in atomic units:
                           1         2         3
     Eigenvalues --   924.451801218.143072142.59486
           X            0.99984  -0.01776   0.00005
           Y            0.01776   0.99984  -0.00001
           Z           -0.00005   0.00001   1.00000
 This molecule is an asymmetric top.
 Rotational symmetry number  1.
 Warning -- assumption of classical behavior for rotation
           may cause significant error
 Rotational temperatures (Kelvin)      0.09369     0.07110     0.04042
 Rotational constants (GHZ):           1.95223     1.48155     0.84232
    1 imaginary frequencies ignored.
 Zero-point vibrational energy     141413.2 (Joules/Mol)
                                   33.79857 (Kcal/Mol)
 Warning -- explicit consideration of  14 degrees of freedom as
           vibrations may cause significant error
 Vibrational temperatures:    184.70   188.97   235.27   256.21   398.71
          (Kelvin)            436.88   533.58   550.29   608.58   637.50
                              683.58   708.76   762.08   767.12  1009.12
                             1053.93  1193.21  1403.20  1806.70  2221.81
                             2433.13  2569.14  2724.62  2849.71  2944.01
                             4855.34

 Zero-point correction=                           0.053861 (Hartree/Particle)
 Thermal correction to Energy=                    0.062579
 Thermal correction to Enthalpy=                  0.063524
 Thermal correction to Gibbs Free Energy=         0.019464
 Sum of electronic and zero-point Energies=           -380.721121
 Sum of electronic and thermal Energies=              -380.712403
 Sum of electronic and thermal Enthalpies=            -380.711459
 Sum of electronic and thermal Free Energies=         -380.755519

                     E (Thermal)             CV                S
                      KCal/Mol        Cal/Mol-Kelvin    Cal/Mol-Kelvin
 Total                   39.269             30.660             92.731
 Electronic               0.000              0.000              2.183
 Translational            0.889              2.981             40.286
 Rotational               0.889              2.981             29.269
 Vibrational             37.492             24.699             20.993
 Vibration     1          0.611              1.925              2.970
 Vibration     2          0.612              1.922              2.926
 Vibration     3          0.623              1.887              2.509
 Vibration     4          0.629              1.869              2.348
 Vibration     5          0.678              1.716              1.551
 Vibration     6          0.695              1.667              1.397
 Vibration     7          0.743              1.532              1.076
 Vibration     8          0.752              1.508              1.029
 Vibration     9          0.785              1.420              0.882
 Vibration    10          0.803              1.376              0.817
 Vibration    11          0.832              1.305              0.723
 Vibration    12          0.848              1.266              0.677
 Vibration    13          0.885              1.184              0.588
 Vibration    14          0.888              1.177              0.580

 Optimization completed.
    -- Stationary point found.
 Normal termination of Gaussian 09 at Mon Sep 19 12:48:09 2022.
